
Host: master.cluster

Timers On : Thu Aug  4 10:52:09 2022
Timers Off: Thu Aug  4 10:52:28 2022

Wall Time:       18.83 seconds

                                                       Time (seconds)
Module                                       User      System        Wall        Calls

--------------------------------------------------------------------------------------

**************************************************************************************
